4246
 Atoms. Timestep: 10010
C -16.1108 -5.43525 -3.68984
C -16.0759 -7.20013 -1.82904
C -16.0782 -5.40296 -0.131241
C -16.0197 -7.17145 1.81575
C -16.0462 -5.41721 3.5584
C -15.9779 -1.88514 -7.1791
C -16.1607 -3.67523 -5.39624
C -15.9669 -1.81813 -3.66792
C -16.1062 -3.70023 -1.82573
C -16.0699 -1.8437 -0.0960804
C -16.0307 -3.63129 1.7463
C -16.0931 -1.89176 3.66379
C -16.0141 -3.55966 5.44682
C -15.9796 -1.67231 7.29472
C -15.9733 1.82111 -7.18828
C -16.0134 -0.133843 -5.38785
C -16.0037 1.75331 -3.64201
C -16.0482 0.0182051 -1.90717
C -18.2569 1.12237 1.0173
C -16.0323 1.71956 0.0853598
C -16.0693 0.106827 1.65333
C -16.0426 1.83547 3.51919
C -16.0496 0.0176168 5.3863
C -15.9055 1.87753 7.30664
C -16.0058 3.5722 -5.33436
C -16.075 5.33601 -3.57987
C -16.0492 3.61726 -1.88595
C -16.0464 5.28329 0.0693277
C -15.9934 3.6329 1.78173
C -16.0121 5.44144 3.61749
C -15.9651 3.64354 5.42666
C -15.9647 7.2605 -1.7397
C -16.0272 7.25492 1.87872
C -12.4762 -12.4242 -0.0104595
C -12.4132 -8.92953 -7.17835
C -12.3889 -10.5674 -5.43976
C -14.2669 -8.91267 -5.29481
C -12.3823 -8.89837 -3.6901
C -12.4568 -10.6121 -1.91044
C -14.2189 -8.90033 -1.78679
C -14.2396 -10.6202 -0.0145704
C -12.4885 -8.91777 -0.0481437
C -12.4692 -10.6208 1.61629
C -14.223 -8.94481 1.80272
C -12.3892 -8.84013 3.45076
C -12.5244 -10.5761 5.5237
C -14.3349 -8.80044 5.49947
C -12.3933 -8.80545 7.06964
C -12.5223 -5.39306 -10.5753
C -12.3519 -7.25944 -8.94306
C -14.2561 -5.25648 -8.94882
C -14.2891 -7.2014 -7.1303
C -12.4805 -5.46528 -7.22762
C -12.4733 -7.14022 -5.41322
C -14.2145 -5.37626 -5.37094
C -14.1642 -7.10654 -3.64962
C -12.5358 -5.3198 -3.62172
C -12.472 -7.1169 -1.78741
C -14.3242 -5.42694 -1.8445
C -14.1765 -7.07597 -0.152906
C -12.4724 -5.36144 -0.00248901
C -12.5238 -7.07168 1.69455
C -14.3144 -5.39112 1.67048
C -14.2145 -7.01327 3.47741
C -12.474 -5.34009 3.49824
C -12.5523 -7.16323 5.31179
C -14.2194 -5.30021 5.28145
C -14.2571 -7.14923 7.27405
C -12.5265 -5.36635 7.14308
C -12.4597 -7.0953 8.86631
C -14.1049 -5.2647 9.12783
C -12.3572 -5.28834 10.7138
C -12.4303 -1.89715 -10.7489
C -12.3092 -3.75904 -8.85087
C -14.3179 -1.87052 -8.8864
C -14.0473 -3.62711 -7.14474
C -12.4256 -1.8629 -7.20468
C -12.4902 -3.59583 -5.35557
C -14.268 -1.93554 -5.41583
C -14.3052 -3.651 -3.61024
C -12.4591 -1.81859 -3.61747
C -12.5354 -3.57179 -1.83505
C -14.2956 -1.79853 -1.85339
C -14.3074 -3.61755 -0.0448597
C -12.5488 -1.7937 -0.0652512
C -12.531 -3.56663 1.72652
C -14.3865 -1.81216 1.77284
C -14.3282 -3.62165 3.58006
C -12.5753 -1.78984 3.54181
C -12.459 -3.57441 5.31399
C -14.304 -1.76239 5.38865
C -14.1698 -3.40685 7.05904
C -12.4657 -1.77763 7.11621
C -12.4414 -3.56159 8.97559
C -14.2017 -1.69276 8.87719
C -12.3184 -1.70168 10.5743
C -12.4926 -0.00761568 -12.5922
C -14.3214 0.0640067 -10.7577
C -12.381 1.5886 -10.6763
C -12.5021 -0.142111 -8.96211
C -14.1319 1.74874 -8.99617
C -14.1508 -0.13869 -6.97256
C -12.4349 1.7397 -7.15987
C -12.4702 -0.0427158 -5.33149
C -14.2857 1.75047 -5.40909
C -14.2625 -0.0592701 -3.64959
C -12.5445 1.72914 -3.5357
C -12.5277 -0.0206853 -1.77951
C -14.3186 1.78437 -1.77109
C -14.2984 -0.0100522 -0.0347432
C -12.477 1.76471 -0.0362575
C -12.5045 0.0238881 1.73023
C -14.2608 1.77959 1.7733
C -14.3247 -0.00861939 3.56237
C -12.5615 1.7951 3.51041
C -12.4845 0.0323339 5.35673
C -14.3152 1.79239 5.36767
C -14.2242 0.0251745 7.1572
C -12.4957 1.83312 7.13537
C -12.4862 0.012311 8.91674
C -14.1627 1.94472 8.83106
C -14.1469 -0.0667251 10.8641
C -12.5567 1.81659 10.7163
C -12.35 0.104013 12.3705
C -12.5245 5.54839 -10.7607
C -12.3966 3.40095 -8.80236
C -14.3322 5.54146 -9.0286
C -14.2083 3.48482 -7.03516
C -12.5382 5.27639 -7.10919
C -12.4649 3.52721 -5.36564
C -14.2239 5.28824 -5.27837
C -14.2393 3.56027 -3.56278
C -12.4386 5.31722 -3.51995
C -12.4714 3.53585 -1.76406
C -14.3318 5.36922 -1.74925
C -14.3602 3.5497 -0.045958
C -12.5183 5.36611 -0.00664895
C -12.508 3.57287 1.75926
C -14.3205 5.35994 1.80312
C -14.2978 3.61094 3.55281
C -12.5045 5.32035 3.50729
C -12.5117 3.55399 5.31078
C -14.3495 5.35624 5.42049
C -14.2934 3.65186 7.16159
C -12.4726 5.36397 7.12574
C -12.4898 3.62753 8.9321
C -14.1395 5.41238 9.07833
C -12.3355 5.52483 10.6491
C -12.422 7.06888 -8.91827
C -14.1986 7.29867 -7.35553
C -12.4254 8.9233 -7.15121
C -12.5308 7.18697 -5.32255
C -14.0943 9.14482 -5.39678
C -14.2261 7.06455 -3.4717
C -12.4981 8.94215 -3.49034
C -12.4743 7.13422 -1.79674
C -14.2926 8.90889 -1.65924
C -14.3117 7.11361 0.00541823
C -12.523 8.93888 0.0266639
C -12.493 7.16384 1.78744
C -14.2787 8.87125 1.95125
C -14.3676 7.16827 3.6448
C -12.5747 8.95922 3.61154
C -12.5145 7.10528 5.33095
C -14.1322 9.05022 5.46518
C -14.1361 7.21742 7.27022
C -12.4797 8.9646 7.16256
C -12.4715 7.21984 8.94255
C -12.3436 10.6499 -5.22406
C -12.4602 10.6432 -1.70224
C -14.1562 10.9017 -0.00271637
C -12.3754 12.4189 0.146711
C -12.553 10.7508 1.78162
C -12.4159 10.7373 5.42469
C -8.8014 -12.3879 -7.27302
C -8.97368 -14.2059 -5.37762
C -10.5899 -12.5322 -5.30444
C -8.86899 -12.3688 -3.72388
C -8.99101 -14.3736 -1.85582
C -10.7558 -12.5043 -1.84511
C -10.6571 -14.2201 -0.0226834
C -8.91844 -12.5151 -0.116743
C -9.01321 -14.2777 1.80301
C -10.6588 -12.3972 1.63806
C -8.86614 -12.4294 3.40986
C -8.9731 -14.3235 5.42769
C -10.8299 -12.4769 5.60458
C -8.87763 -12.4394 7.05325
C -8.79966 -8.92513 -10.584
C -8.85871 -10.6456 -8.89739
C -10.5958 -8.8637 -9.0031
C -10.8287 -10.6334 -7.19145
C -8.89946 -8.93076 -7.13489
C -8.94982 -10.6578 -5.4497
C -10.7154 -8.93169 -5.43099
C -10.6315 -10.6526 -3.71248
C -8.88882 -8.92905 -3.59098
C -8.93998 -10.7193 -1.84627
C -10.6966 -8.92638 -1.84826
C -10.7076 -10.7227 -0.0485976
C -8.93101 -8.93179 -0.0601717
C -8.9641 -10.6659 1.716
C -10.7099 -8.92996 1.69806
C -10.6985 -10.6866 3.46509
C -8.93981 -8.9207 3.52824
C -8.92831 -10.7196 5.26922
C -10.7323 -8.94581 5.30649
C -10.6355 -10.6009 7.07353
C -8.90073 -8.89512 7.11281
C -8.91506 -10.6285 8.87592
C -10.6959 -8.87022 8.89341
C -8.86443 -8.90189 10.6073
C -8.90978 -5.26224 -14.2278
C -9.06933 -7.14457 -12.3921
C -10.608 -5.34657 -12.501
C -10.6081 -7.27443 -10.7466
C -8.87646 -5.37135 -10.7162
C -8.84581 -7.15253 -8.8793
C -10.6155 -5.42457 -8.903
C -10.6518 -7.1296 -7.13281
C -8.87988 -5.34472 -7.12298
C -8.91396 -7.12436 -5.38538
C -10.6824 -5.36077 -5.43593
C -10.6713 -7.07223 -3.63337
C -8.93839 -5.35324 -3.57881
C -8.92204 -7.14796 -1.83631
C -10.713 -5.31552 -1.81886
C -10.7405 -7.12959 -0.0306253
C -8.93158 -5.34734 -0.0258972
C -8.9396 -7.12645 1.69905
C -10.689 -5.35458 1.72181
C -10.709 -7.13421 3.5054
C -8.98143 -5.35332 3.55842
C -8.92852 -7.14716 5.27056
C -10.742 -5.31302 5.28533
C -10.7276 -7.10991 7.1132
C -8.89321 -5.37442 7.11294
C -8.90919 -7.15986 8.9009
C -10.6916 -5.33959 8.87892
C -10.6406 -7.16459 10.6485
C -8.88295 -5.36773 10.6251
C -8.88208 -7.11041 12.4312
C -10.5654 -5.28873 12.3163
C -8.90651 -5.26729 14.154
C -8.9464 -1.82382 -14.2949
C -8.87272 -3.69708 -12.4321
C -10.6639 -1.94964 -12.4357
C -10.5872 -3.69423 -10.694
C -8.91865 -1.83943 -10.7032
C -8.8523 -3.59701 -8.89571
C -10.659 -1.90524 -8.94282
C -10.6549 -3.61392 -7.14279
C -8.85503 -1.81908 -7.17327
C -8.88562 -3.61422 -5.34191
C -10.6986 -1.8308 -5.34511
C -10.6983 -3.56092 -3.58947
C -8.9207 -1.82553 -3.54322
C -8.8568 -3.58921 -1.79055
C -10.6727 -1.80038 -1.80906
C -10.7249 -3.54068 -0.0687842
C -8.896 -1.80707 -0.00840522
C -8.92295 -3.55474 1.75581
C -10.7214 -1.79608 1.77607
C -10.6994 -3.56189 3.53087
C -8.93017 -1.78016 3.60734
C -8.92653 -3.52571 5.35906
C -10.7326 -1.80269 5.35928
C -10.7282 -3.57791 7.11816
C -8.96115 -1.79143 7.16609
C -8.91792 -3.54022 8.88422
C -10.6641 -1.74927 8.87547
C -10.6854 -3.5456 10.6738
C -8.94927 -1.8069 10.6673
C -8.88801 -3.5601 12.4611
C -10.6775 -1.74007 12.3825
C -8.81185 -1.74397 14.1654
C -10.5706 0.0156548 -14.2891
C -8.85511 1.70851 -14.3467
C -8.90971 -0.124829 -12.5182
C -10.6234 1.6491 -12.5486
C -10.6786 -0.0807599 -10.7521
C -8.95646 1.71241 -10.7877
C -8.89003 -0.0656936 -8.92786
C -10.6702 1.70314 -8.92867
C -10.6901 -0.06502 -7.15177
C -8.87465 1.71997 -7.18977
C -8.85841 -0.0161328 -5.37836
C -10.7102 1.7171 -5.35523
C -10.7288 -0.0305198 -3.58444
C -8.86372 1.78957 -3.58057
C -8.90314 -0.0320001 -1.774
C -10.7073 1.73497 -1.78927
C -10.7143 -0.00881349 -0.00644389
C -8.95186 1.77148 -0.0160084
C -8.95128 -0.00177857 1.78303
C -10.6845 1.79247 1.74277
C -10.7175 -0.00277434 3.55274
C -8.91355 1.77587 3.53394
C -8.94348 0.00916312 5.36282
C -10.6927 1.76609 5.33836
C -10.7087 0.032796 7.13172
C -8.9253 1.76687 7.1436
C -8.93703 0.0732429 8.91601
C -10.7369 1.82518 8.91721
C -10.703 0.0479767 10.7161
C -8.91592 1.79452 10.6956
C -8.95823 0.0180055 12.4817
C -10.7554 1.77651 12.4587
C -10.7134 0.076537 14.132
C -9.01086 1.7776 14.3018
C -8.97059 5.44743 -14.2786
C -8.88772 3.39017 -12.472
C -10.7071 5.53891 -12.4822
C -10.6756 3.38584 -10.6095
C -8.98286 5.31502 -10.7364
C -8.94329 3.53484 -8.9935
C -10.8013 5.34887 -8.96736
C -10.6566 3.52425 -7.15226
C -8.9353 5.35998 -7.1823
C -8.92342 3.54448 -5.37156
C -10.7491 5.35439 -5.36297
C -10.6777 3.47897 -3.56234
C -8.90524 5.33771 -3.57368
C -8.89552 3.55812 -1.80205
C -10.7222 5.33904 -1.75184
C -10.7041 3.53183 -0.0339062
C -8.93094 5.34961 -0.00506737
C -8.9387 3.54516 1.80463
C -10.7078 5.34297 1.77071
C -10.7107 3.55637 3.56255
C -8.93819 5.34904 3.58218
C -8.92733 3.58683 5.36587
C -10.7405 5.37005 5.34171
C -10.7011 3.52229 7.13319
C -8.91944 5.34947 7.09743
C -8.92638 3.54145 8.90704
C -10.6915 5.35135 8.93988
C -10.6892 3.60154 10.6979
C -8.85825 5.35479 10.682
C -8.95026 3.56291 12.5205
C -10.6526 5.48815 12.3146
C -9.06136 5.43499 14.1552
C -8.90639 7.08384 -12.4524
C -10.6515 7.04288 -10.6644
C -8.88333 8.8349 -10.7127
C -8.88425 7.12761 -8.84753
C -10.6692 8.86021 -8.87344
C -10.7599 7.10269 -7.07174
C -8.9272 8.90833 -7.12569
C -8.89388 7.08526 -5.36457
C -10.7234 8.91662 -5.33966
C -10.6911 7.18627 -3.57082
C -8.89222 8.87137 -3.57099
C -8.95534 7.10125 -1.75961
C -10.6863 8.91026 -1.75862
C -10.7095 7.13108 -0.0176599
C -8.92228 8.94218 -0.00762385
C -8.9362 7.11511 1.83271
C -10.7159 8.88265 1.79897
C -10.7369 7.12717 3.57983
C -8.92953 8.87828 3.51437
C -8.86103 7.11732 5.32111
C -10.7069 8.91287 5.29672
C -10.6664 7.16171 7.10125
C -8.89745 8.90389 7.11135
C -8.89083 7.1498 8.90219
C -10.6616 8.94129 8.90281
C -10.6531 7.20818 10.6465
C -8.89561 8.93622 10.6682
C -8.91212 7.14394 12.4696
C -8.88811 10.6307 -8.88093
C -10.6331 10.6344 -7.1293
C -8.90155 12.3888 -7.15167
C -8.89537 10.6765 -5.36405
C -10.6298 12.3594 -5.28276
C -10.7197 10.6712 -3.51291
C -8.94581 12.5065 -3.53016
C -8.8807 10.6912 -1.75695
C -10.6578 12.4352 -1.74476
C -10.7181 10.6632 0.0480482
C -8.94319 12.5119 0.00853477
C -8.90564 10.661 1.78449
C -10.6955 12.5238 1.8175
C -10.781 10.7155 3.56151
C -8.94507 12.4697 3.5631
C -8.93982 10.6719 5.33427
C -10.6881 12.3708 5.42346
C -10.6953 10.714 7.14604
C -8.97623 12.5058 7.16262
C -8.88707 10.7296 8.88428
C -8.96373 14.1916 -5.34787
C -8.8109 14.2436 -1.65889
C -10.7128 14.2495 0.13938
C -8.88016 14.293 1.81907
C -8.95801 14.1606 5.45594
C -5.25043 -16.2645 -3.64829
C -7.18651 -16.0625 -1.89968
C -5.33856 -16.0128 -0.124944
C -7.0695 -16.0271 1.68938
C -5.43642 -16.034 3.53117
C -5.33078 -12.222 -10.7727
C -5.25708 -14.3618 -8.93689
C -7.22037 -12.4299 -8.95882
C -7.16408 -14.2508 -7.19659
C -5.45999 -12.4826 -7.16695
C -5.38553 -14.0747 -5.34918
C -7.22656 -12.4501 -5.41463
C -7.20331 -14.1611 -3.65851
C -5.37556 -12.4771 -3.5694
C -5.41244 -14.3129 -1.93771
C -7.16317 -12.4612 -1.8456
C -7.05162 -14.2193 -0.192865
C -5.36102 -12.4763 -0.0953244
C -5.39404 -14.295 1.70811
C -7.16332 -12.4996 1.73852
C -7.03986 -14.2262 3.42128
C -5.36973 -12.4735 3.50102
C -5.27015 -14.2451 5.21404
C -7.15099 -12.514 5.29334
C -7.19375 -14.263 7.19243
C -5.36858 -12.4923 7.03417
C -5.33853 -14.1525 9.02833
C -7.07978 -12.3734 8.83496
C -5.26879 -12.4099 10.6832
C -5.43806 -8.99348 -14.1906
C -5.35291 -10.6719 -12.3881
C -7.19845 -8.82109 -12.3998
C -7.38293 -10.5754 -10.55
C -5.38397 -8.92497 -10.7099
C -5.38181 -10.6616 -8.92609
C -7.0848 -8.84761 -8.84283
C -7.11851 -10.6844 -7.17352
C -5.34247 -8.89201 -7.14071
C -5.34383 -10.709 -5.37192
C -7.14004 -8.91512 -5.39241
C -7.10822 -10.6621 -3.62332
C -5.31701 -8.88701 -3.58034
C -5.33852 -10.6933 -1.82
C -7.12968 -8.90798 -1.79829
C -7.21259 -10.7157 -0.0592279
C -5.35923 -8.9901 -0.032091
C -5.40948 -10.6684 1.73166
C -7.13333 -8.87799 1.73707
C -7.18114 -10.7173 3.51079
C -5.39865 -8.9201 3.52998
C -5.38991 -10.7112 5.32743
C -7.13013 -8.92538 5.30693
C -7.13808 -10.7281 7.06516
C -5.37652 -8.95314 7.14934
C -5.33863 -10.683 8.90372
C -7.15636 -8.95366 8.87569
C -7.13611 -10.6688 10.6912
C -5.34473 -8.90608 10.6922
C -5.27866 -10.6647 12.4348
C -7.10202 -8.84521 12.4408
C -5.2548 -8.93979 14.1834
C -7.14309 -7.13595 -14.3691
C -5.37673 -5.28823 -14.1723
C -5.42042 -7.17203 -12.4411
C -7.21047 -5.47943 -12.4805
C -7.12514 -7.13273 -10.6508
C -5.35509 -5.38312 -10.6952
C -5.36443 -7.15755 -8.88845
C -7.09892 -5.36155 -8.91349
C -7.1028 -7.1051 -7.12099
C -5.35289 -5.34682 -7.1187
C -5.32984 -7.11864 -5.3277
C -7.09745 -5.3512 -5.34265
C -7.098 -7.12575 -3.63925
C -5.34152 -5.35516 -3.53248
C -5.30451 -7.11658 -1.79596
C -7.1189 -5.3474 -1.8
C -7.11127 -7.07746 -0.033803
C -5.30924 -5.29538 -0.0696812
C -5.33729 -7.10999 1.75128
C -7.15298 -5.31968 1.75728
C -7.14341 -7.08846 3.56549
C -5.35077 -5.34127 3.56348
C -5.34502 -7.13786 5.32386
C -7.14613 -5.39993 5.35877
C -7.15454 -7.15159 7.09342
C -5.34664 -5.33391 7.10217
C -5.32673 -7.14636 8.89683
C -7.08943 -5.35404 8.9073
C -7.15193 -7.12835 10.6941
C -5.39108 -5.37734 10.6696
C -5.34877 -7.16664 12.4348
C -7.1376 -5.34737 12.4918
C -7.13382 -7.09402 14.2197
C -5.36099 -5.39926 14.2702
C -5.50611 -3.67502 -16.0685
C -7.17889 -1.74657 -16.066
C -7.07079 -3.60317 -14.1434
C -5.41303 -1.81741 -14.2406
C -5.35975 -3.54987 -12.4944
C -7.15185 -1.834 -12.474
C -7.13725 -3.59229 -10.7395
C -5.3132 -1.82462 -10.7302
C -5.30128 -3.57373 -8.96612
C -7.11132 -1.82729 -8.93245
C -7.13482 -3.57973 -7.14401
C -5.33852 -1.78373 -7.10407
C -5.3321 -3.55561 -5.3318
C -7.13226 -1.80867 -5.35304
C -7.06334 -3.58462 -3.57152
C -5.35906 -1.78016 -3.57975
C -5.33403 -3.54349 -1.80508
C -7.13651 -1.80229 -1.78746
C -7.1344 -3.56093 -0.0145034
C -5.31963 -1.80688 0.00877329
C -5.33214 -3.60739 1.76673
C -7.10487 -1.7818 1.78907
C -7.16946 -3.55717 3.56869
C -5.36683 -1.81395 3.58903
C -5.29565 -3.60588 5.3316
C -7.13755 -1.77099 5.41124
C -7.12001 -3.55432 7.11256
C -5.34328 -1.72135 7.12461
C -5.33681 -3.55304 8.89956
C -7.12598 -1.73108 8.9331
C -7.14379 -3.52875 10.6551
C -5.33307 -1.76425 10.7125
C -5.39349 -3.59284 12.4694
C -7.14841 -1.81094 12.4714
C -7.14851 -3.58509 14.2635
C -5.34451 -1.80158 14.2129
C -5.31711 -3.4862 15.994
C -7.13428 -1.7329 15.9382
C -5.40969 -0.104169 -15.9765
C -7.22411 1.86074 -16.1382
C -7.08103 -0.165954 -14.1592
C -5.41004 1.72395 -14.3296
C -5.31452 0.0103645 -12.4547
C -7.10621 1.73565 -12.472
C -7.08508 -0.0115294 -10.7146
C -5.30791 1.76915 -10.7574
C -5.33473 -0.0512799 -8.89377
C -7.14043 1.75401 -8.95556
C -7.12292 -0.00851846 -7.12336
C -5.33029 1.77756 -7.13039
C -5.31419 -0.00445668 -5.36404
C -7.14719 1.74727 -5.42416
C -7.11807 -0.0160978 -3.59042
C -5.31886 1.708 -3.53944
C -5.3344 -0.0514089 -1.77784
C -7.14766 1.72675 -1.76168
C -7.15516 0.0239637 0.0624086
C -5.36523 1.75407 0.0406389
C -5.36515 -0.0144263 1.81133
C -7.15616 1.75379 1.74541
C -7.14236 -0.0159582 3.59196
C -5.3372 1.7546 3.55464
C -5.33712 0.00883735 5.37806
C -7.12908 1.77232 5.33237
C -7.10741 0.0146338 7.12297
C -5.33612 1.75054 7.14769
C -5.33273 0.0306304 8.94843
C -7.11531 1.78273 8.92203
C -7.20843 0.00470252 10.6843
C -5.34321 1.76896 10.7245
C -5.35764 -0.0122315 12.4717
C -7.1577 1.80288 12.5219
C -7.14061 0.00650579 14.3073
C -5.4087 1.7943 14.2718
C -5.3795 0.0032717 16.0637
C -7.12462 1.84843 15.9576
C -5.39542 3.53514 -16.0947
C -7.04371 3.43992 -14.2284
C -5.28218 5.2657 -14.2174
C -5.36037 3.51498 -12.5045
C -7.16821 5.31495 -12.5597
C -7.17433 3.51899 -10.6983
C -5.38499 5.34108 -10.7197
C -5.37886 3.55989 -8.96178
C -7.14094 5.2939 -8.90677
C -7.1328 3.53185 -7.16655
C -5.37242 5.321 -7.15139
C -5.38304 3.5752 -5.29739
C -7.16702 5.29996 -5.36666
C -7.15089 3.50072 -3.57942
C -5.37587 5.31787 -3.55945
C -5.35336 3.53306 -1.79465
C -7.16206 5.35259 -1.8146
C -7.1644 3.57095 -0.00434245
C -5.37248 5.34299 -0.0572078
C -5.37313 3.5475 1.77761
C -7.16917 5.28629 1.82408
C -7.09789 3.52059 3.52036
C -5.35266 5.34023 3.56916
C -5.34897 3.60963 5.33708
C -7.13956 5.32672 5.35919
C -7.13084 3.51739 7.14228
C -5.32972 5.37235 7.10081
C -5.38735 3.56948 8.93364
C -7.09902 5.37757 8.88553
C -7.17308 3.54401 10.7015
C -5.34961 5.31791 10.7209
C -5.34861 3.57258 12.5018
C -7.11792 5.30061 12.5059
C -7.19698 3.5462 14.2786
C -5.34903 5.40504 14.2976
C -5.42365 3.55329 16.1064
C -7.22433 7.18957 -14.2935
C -5.45601 9.12506 -14.0778
C -5.35393 7.1037 -12.4977
C -7.12461 8.85115 -12.3911
C -7.19332 7.11304 -10.7399
C -5.36783 8.91252 -10.6977
C -5.40089 7.0987 -8.93753
C -7.15099 8.89445 -8.92032
C -7.14639 7.13521 -7.11161
C -5.39755 8.8972 -7.13996
C -5.38902 7.07774 -5.35488
C -7.12868 8.88409 -5.33519
C -7.1147 7.12459 -3.56274
C -5.31009 8.9157 -3.53519
C -5.37667 7.09735 -1.77409
C -7.11918 8.94825 -1.78433
C -7.21063 7.13607 0.0200776
C -5.34778 8.938 0.00868503
C -5.38402 7.11785 1.77098
C -7.18476 8.9013 1.74915
C -7.1284 7.09691 3.61005
C -5.37709 8.92787 3.56103
C -5.38683 7.06886 5.33302
C -7.15553 8.92273 5.35027
C -7.1048 7.16005 7.13839
C -5.301 8.89897 7.15696
C -5.32505 7.14044 8.962
C -7.09499 8.89226 8.90818
C -7.13329 7.13297 10.7204
C -5.33031 8.91685 10.7395
C -5.3926 7.10773 12.5207
C -7.17711 8.92408 12.5528
C -7.22955 7.13792 14.3409
C -5.33552 8.9777 14.3312
C -5.28027 10.6908 -12.3705
C -7.09649 10.6279 -10.656
C -5.23779 12.3612 -10.6183
C -5.42791 10.6389 -8.90925
C -7.13076 12.4071 -8.90015
C -7.14003 10.6567 -7.12765
C -5.37309 12.4723 -7.14986
C -5.38321 10.7238 -5.38041
C -7.18753 12.4548 -5.38628
C -7.13714 10.7399 -3.60015
C -5.38236 12.4778 -3.60146
C -5.32303 10.7044 -1.76395
C -7.09272 12.4887 -1.78716
C -7.13851 10.7047 0.00107929
C -5.31496 12.5093 0.0200635
C -5.36328 10.6606 1.80144
C -7.13196 12.475 1.78158
C -7.1424 10.7224 3.57373
C -5.31955 12.4684 3.5941
C -5.30535 10.6944 5.33951
C -7.10233 12.468 5.3457
C -7.08716 10.7257 7.10747
C -5.33398 12.5489 7.12844
C -5.29877 10.6647 8.93484
C -7.10024 12.5229 8.85799
C -7.09901 10.7134 10.6894
C -5.29642 12.4628 10.7306
C -5.35969 10.7259 12.5596
C -5.24168 14.1388 -8.92485
C -7.0627 14.2254 -7.1452
C -5.38595 14.2147 -5.43665
C -7.12557 14.2886 -3.64795
C -5.35496 16.0193 -3.59724
C -5.34409 14.2428 -1.8146
C -7.08888 15.9448 -1.82105
C -7.07995 14.2693 0.0109506
C -5.39075 16.0702 0.00725065
C -5.35826 14.2989 1.80967
C -7.08905 15.9216 1.86799
C -7.19315 14.3069 3.61088
C -5.3374 16.1217 3.56387
C -5.32994 14.313 5.33929
C -7.2057 14.3572 7.12781
C -5.32733 14.3274 8.99374
C -1.81651 -15.9862 -7.14118
C -3.61953 -16.0191 -5.51325
C -1.87224 -16.0428 -3.60621
C -3.56997 -16.0627 -1.803
C -1.77167 -16.007 -0.0265023
C -3.49245 -16.0304 1.68803
C -1.82699 -16.0415 3.60685
C -3.54458 -16.0667 5.32882
C -1.74838 -15.9564 7.22239
C -1.83431 -12.4882 -10.8134
C -1.90259 -14.325 -8.8406
C -3.7364 -12.4253 -8.87864
C -3.62213 -14.1684 -7.11522
C -1.8697 -12.5095 -7.1318
C -1.83372 -14.2844 -5.40949
C -3.61175 -12.455 -5.34962
C -3.60309 -14.2666 -3.63785
C -1.79054 -12.4878 -3.5675
C -1.82677 -14.3087 -1.83098
C -3.54222 -12.4881 -1.77033
C -3.59861 -14.2345 -0.0450376
C -1.77226 -12.4837 -0.000735257
C -1.7179 -14.2985 1.76845
C -3.59611 -12.4771 1.73005
C -3.57548 -14.3185 3.50759
C -1.809 -12.4831 3.54318
C -1.76718 -14.2855 5.34827
C -3.56819 -12.4684 5.29674
C -3.53629 -14.2366 7.06369
C -1.79652 -12.5298 7.10865
C -1.68684 -14.2317 8.86017
C -3.59075 -12.4929 8.95421
C -1.7347 -12.4039 10.6818
C -1.83803 -8.95442 -14.3292
C -1.84811 -10.6717 -12.3983
C -3.69746 -8.89703 -12.412
C -3.64157 -10.6303 -10.6147
C -1.79917 -8.92665 -10.6898
C -1.81838 -10.7004 -8.92711
C -3.57435 -8.88745 -8.86761
C -3.59092 -10.655 -7.10055
C -1.82277 -8.88839 -7.12356
C -1.81821 -10.7002 -5.35121
C -3.57986 -8.92522 -5.33771
C -3.55842 -10.6836 -3.55266
C -1.75392 -8.89533 -3.57293
C -1.79174 -10.6673 -1.76567
C -3.53001 -8.92485 -1.74738
C -3.55357 -10.7088 0.00399599
C -1.75009 -8.93082 0.0172625
C -1.80615 -10.6749 1.77679
C -3.5212 -8.91192 1.76145
C -3.64204 -10.7079 3.53644
C -1.80669 -8.8933 3.54582
C -1.75961 -10.7001 5.29923
C -3.5879 -8.89966 5.36561
C -3.54631 -10.6962 7.09711
C -1.8258 -8.91792 7.14297
C -1.80684 -10.7126 8.90697
C -3.56111 -8.91404 8.88811
C -3.57084 -10.6718 10.7151
C -1.79829 -8.91089 10.7001
C -1.6937 -10.6392 12.4294
C -3.56259 -8.8992 12.4119
C -1.71251 -8.82091 14.1725
C -1.66163 -7.28543 -16.0127
C -3.65423 -5.4289 -16.061
C -3.65482 -7.20263 -14.1634
C -1.87623 -5.44534 -14.3159
C -1.83514 -7.21196 -12.4812
C -3.60954 -5.39214 -12.5427
C -3.55657 -7.14693 -10.669
C -1.80301 -5.33962 -10.6913
C -1.77136 -7.1549 -8.92057
C -3.6309 -5.36611 -8.90745
C -3.57574 -7.14406 -7.13946
C -1.82605 -5.3819 -7.11646
C -1.79771 -7.11687 -5.32953
C -3.55657 -5.3609 -5.3562
C -3.547 -7.12357 -3.56388
C -1.76084 -5.37046 -3.5827
C -1.74071 -7.14011 -1.7797
C -3.57105 -5.32692 -1.77351
C -3.57714 -7.1178 0.00299423
C -1.7367 -5.34483 -0.0183103
C -1.74363 -7.12037 1.79121
C -3.58014 -5.34608 1.74635
C -3.53998 -7.11606 3.57345
C -1.7458 -5.36547 3.5705
C -1.78018 -7.10803 5.37491
C -3.59024 -5.34697 5.35584
C -3.52637 -7.1543 7.1217
C -1.81223 -5.32478 7.14636
C -1.818 -7.12097 8.9093
C -3.63552 -5.3603 8.90278
C -3.55051 -7.10996 10.6825
C -1.77113 -5.35723 10.6799
C -1.76688 -7.07852 12.444
C -3.62083 -5.33947 12.4429
C -3.60381 -7.14353 14.25
C -1.82865 -5.36023 14.2445
C -1.78022 -7.12839 15.8913
C -3.58007 -5.31329 16.0005
C -1.88542 -3.71302 -16.0131
C -3.72285 -1.90263 -16.0784
C -3.61556 -3.63586 -14.3148
C -1.82028 -1.86666 -14.3566
C -1.86641 -3.60775 -12.4996
C -3.59285 -1.80679 -12.5663
C -3.58168 -3.64287 -10.7238
C -1.78966 -1.80339 -10.6846
C -1.80719 -3.59807 -8.91309
C -3.52864 -1.78846 -8.90765
C -3.53884 -3.59983 -7.14705
C -1.77729 -1.87557 -7.1208
C -1.7582 -3.58154 -5.30786
C -3.54321 -1.79318 -5.30067
C -3.52781 -3.60318 -3.54923
C -1.74176 -1.84382 -3.56709
C -1.7493 -3.57277 -1.78336
C -3.56674 -1.78752 -1.81484
C -3.49513 -3.57323 -0.00346492
C -1.76142 -1.78323 0.00421817
C -1.78316 -3.55954 1.80032
C -3.55992 -1.761 1.83018
C -3.57732 -3.5513 3.57846
C -1.76312 -1.75347 3.59328
C -1.79051 -3.5611 5.36217
C -3.55738 -1.79112 5.32966
C -3.57027 -3.57109 7.17212
C -1.76344 -1.7546 7.19936
C -1.79462 -3.55858 8.93792
C -3.58236 -1.73347 8.96164
C -3.58975 -3.62442 10.6632
C -1.82463 -1.76638 10.7178
C -1.82424 -3.55751 12.5044
C -3.56382 -1.79276 12.4926
C -3.61588 -3.62755 14.261
C -1.80609 -1.78262 14.3016
C -1.80583 -3.60455 16.063
C -3.58327 -1.7901 16.0298
C -1.84102 0.0493301 -16.0028
C -3.60705 1.69362 -16.0768
C -3.62904 -0.075719 -14.3322
C -1.76437 1.78674 -14.3162
C -1.81415 -0.0420273 -12.5426
C -3.59918 1.79536 -12.5803
C -3.57996 -0.0188334 -10.702
C -1.82898 1.72823 -10.7602
C -1.76815 -0.0138476 -8.93413
C -3.56152 1.75893 -8.91641
C -3.51201 -0.0448043 -7.11909
C -1.74573 1.77185 -7.1868
C -1.77645 0.00987726 -5.3544
C -3.60242 1.78041 -5.3516
C -3.59113 0.0337881 -3.55015
C -1.80894 1.74709 -3.57981
C -1.78119 -0.0291981 -1.77768
C -3.58773 1.74005 -1.78808
C -3.54286 -0.0146294 0.0171667
C -1.80818 1.76354 -0.00562257
C -1.80292 0.0178802 1.81804
C -3.54536 1.76998 1.79721
C -3.58041 -0.0134439 3.6028
C -1.71834 1.77401 3.62498
C -1.76551 -0.0243853 5.35484
C -3.57611 1.80326 5.35499
C -3.50723 -0.0114799 7.12776
C -1.78029 1.81165 7.09974
C -1.79673 0.0241073 8.93333
C -3.56662 1.80856 8.95563
C -3.5642 0.040477 10.7241
C -1.75392 1.82076 10.735
C -1.79648 0.0115984 12.5169
C -3.52023 1.82663 12.5405
C -3.55713 -0.0301555 14.3171
C -1.79613 1.81437 14.3396
C -1.76852 -0.00467421 16.1259
C -3.58829 1.78767 16.1409
C -1.82392 3.62327 -16.1054
C -3.57063 5.38401 -16.0918
C -3.56735 3.57032 -14.3918
C -1.70074 5.35067 -14.3082
C -1.83684 3.5465 -12.5042
C -3.58635 5.31952 -12.5156
C -3.53914 3.57058 -10.6842
C -1.77899 5.32557 -10.7095
C -1.80656 3.52326 -8.96156
C -3.63743 5.32305 -8.91403
C -3.57772 3.55984 -7.12531
C -1.80636 5.3221 -7.12817
C -1.77224 3.52554 -5.33834
C -3.59653 5.34964 -5.31753
C -3.57578 3.52624 -3.55159
C -1.7761 5.33799 -3.5792
C -1.81706 3.55413 -1.74142
C -3.58418 5.34 -1.76162
C -3.61314 3.53735 0.0240837
C -1.82386 5.28917 0.00739753
C -1.73737 3.50881 1.79272
C -3.56867 5.37486 1.79034
C -3.56027 3.56339 3.58481
C -1.77027 5.3488 3.54354
C -1.7657 3.57826 5.35166
C -3.54187 5.3741 5.33895
C -3.55908 3.56061 7.11032
C -1.80165 5.36451 7.16175
C -1.78791 3.59768 8.91356
C -3.54692 5.37007 8.95045
C -3.5605 3.59098 10.7045
C -1.74204 5.37745 10.6878
C -1.78848 3.57594 12.5124
C -3.53362 5.36579 12.4513
C -3.56563 3.56787 14.3274
C -1.75756 5.38296 14.3244
C -1.79757 3.64196 16.0935
C -3.57361 5.33136 16.0858
C -1.71667 7.29274 -15.9601
C -3.5734 7.03148 -14.2896
C -1.72465 8.86381 -14.1904
C -1.81247 7.15432 -12.5544
C -3.58466 8.96239 -12.5414
C -3.60093 7.1248 -10.6976
C -1.78987 8.89681 -10.675
C -1.75691 7.0807 -8.94536
C -3.57513 8.87421 -8.88167
C -3.57779 7.0604 -7.13731
C -1.77048 8.84903 -7.08854
C -1.82158 7.13289 -5.30428
C -3.57798 8.88034 -5.39576
C -3.57575 7.12228 -3.53252
C -1.78984 8.93213 -3.58792
C -1.77049 7.16576 -1.73284
C -3.58122 8.87591 -1.75832
C -3.54383 7.09507 0.0210031
C -1.78025 8.91858 0.0221219
C -1.76186 7.15129 1.75719
C -3.53771 8.92725 1.79253
C -3.56291 7.11073 3.5755
C -1.73681 8.92383 3.58431
C -1.72002 7.14172 5.39132
C -3.56658 8.89312 5.31191
C -3.54976 7.14131 7.12349
C -1.72111 8.91809 7.17522
C -1.76266 7.11554 8.94535
C -3.53059 8.89576 8.91816
C -3.59369 7.12992 10.7097
C -1.7768 8.90589 10.7017
C -1.77026 7.13341 12.4271
C -3.59842 8.924 12.5257
C -3.54754 7.11806 14.2795
C -1.80459 8.91572 14.2545
C -1.72571 7.17382 16.0924
C -1.76242 10.6084 -12.3636
C -3.58029 10.6672 -10.6911
C -1.71591 12.3993 -10.6264
C -1.85165 10.6591 -8.90524
C -3.58006 12.4388 -8.92006
C -3.56454 10.6868 -7.15703
C -1.78987 12.4883 -7.16816
C -1.77612 10.7268 -5.33537
C -3.56874 12.5112 -5.36295
C -3.5831 10.751 -3.56484
C -1.75257 12.5341 -3.57799
C -1.78458 10.7316 -1.73125
C -3.55389 12.5631 -1.78789
C -3.57516 10.6852 0.00150785
C -1.77475 12.4901 0.00185859
C -1.77747 10.7258 1.80758
C -3.57755 12.4813 1.77355
C -3.54734 10.6968 3.5437
C -1.80424 12.4737 3.52329
C -1.78138 10.7103 5.35256
C -3.56467 12.536 5.35936
C -3.54677 10.7216 7.19494
C -1.73832 12.5007 7.07984
C -1.71512 10.7366 8.94737
C -3.52942 12.4931 8.98365
C -3.54326 10.7075 10.7503
C -1.66576 12.4654 10.6959
C -1.71688 10.7051 12.5171
C -1.70957 14.2273 -8.87822
C -3.59038 14.2544 -7.18629
C -1.66782 15.9464 -7.10402
C -1.81553 14.277 -5.40852
C -3.5163 15.9803 -5.32965
C -3.59794 14.2673 -3.5809
C -1.80976 16.0514 -3.62097
C -1.76937 14.3575 -1.78942
C -3.63618 16.0904 -1.81089
C -3.57541 14.3525 0.00563211
C -1.8084 16.1212 0.0672652
C -1.77856 14.259 1.81532
C -3.58591 16.1053 1.85345
C -3.56479 14.2709 3.59428
C -1.74697 16.0787 3.59807
C -1.80174 14.3152 5.37039
C -3.55794 16.0889 5.35226
C -3.53721 14.2958 7.14912
C -1.6903 16.1262 7.18976
C -1.72193 14.2644 8.88799
C 1.78176 -15.9302 -7.2157
C -0.115208 -16.0394 -5.42847
C 1.78129 -16.0157 -3.57155
C 0.0386644 -16.0623 -1.7636
C 1.03459 -18.2308 0.979189
C 1.74021 -16.0269 0.128715
C 0.0613537 -16.0239 1.6747
C 1.76476 -15.9918 3.58499
C 0.10117 -16.0172 5.31212
C 1.93309 -15.9949 7.21422
C 0.0187233 -12.5719 -12.3784
C 0.0119606 -14.3266 -10.7058
C 1.6276 -12.4836 -10.6179
C 1.80248 -14.2745 -8.99469
C -0.102745 -12.514 -8.93614
C -0.14454 -14.1795 -7.1176
C 1.70531 -12.476 -7.12127
C 1.71868 -14.3018 -5.39233
C -0.0296716 -12.5526 -5.33884
C -0.0659214 -14.3161 -3.53505
C 1.75248 -12.5151 -3.57144
C 1.82749 -14.3428 -1.77792
C 0.00358271 -12.5174 -1.78153
C 0.00606041 -14.259 -0.00174279
C 1.82631 -12.4919 -0.0281085
C 1.76507 -14.288 1.80909
C 0.0340707 -12.4883 1.80999
C -0.0375144 -14.2751 3.615
C 1.79444 -12.4732 3.5648
C 1.77605 -14.2484 5.35292
C -0.0076979 -12.4833 5.3296
C 0.0298995 -14.2764 7.13057
C 1.78916 -12.5363 7.11789
C 1.9428 -14.1903 8.83351
C 0.048065 -12.5189 8.94442
C -0.00728175 -14.0777 10.9156
C 1.8232 -12.4875 10.7017
C 0.143249 -12.3586 12.3864
C 0.00972774 -10.6571 -14.1822
C 1.80881 -9.05348 -14.2474
C 1.67858 -10.708 -12.4449
C -0.0617594 -8.95511 -12.4799
C -0.0436784 -10.6963 -10.6506
C 1.73114 -8.95278 -10.6752
C 1.67306 -10.6869 -8.87656
C -0.0394463 -8.92406 -8.87901
C -0.0361137 -10.7452 -7.09872
C 1.79549 -8.98002 -7.11738
C 1.72971 -10.7652 -5.33618
C 0.0122698 -8.9206 -5.36342
C -0.0577961 -10.6909 -3.51892
C 1.80337 -8.95702 -3.59406
C 1.77727 -10.6828 -1.74302
C 0.0234423 -8.91073 -1.81353
C 0.0438378 -10.7074 0.0261691
C 1.81092 -8.87484 0.00521992
C 1.7755 -10.6927 1.76662
C -0.0198124 -8.93043 1.8078
C -0.0464261 -10.7134 3.55561
C 1.77008 -8.88928 3.57332
C 1.74463 -10.6794 5.32975
C -0.0873188 -8.91578 5.37361
C 0.0161027 -10.6969 7.16255
C 1.70372 -8.84346 7.1103
C 1.78149 -10.6948 8.89356
C 0.0230413 -8.90909 8.89993
C 0.0207893 -10.705 10.6995
C 1.8015 -8.94529 10.6804
C 1.80701 -10.6892 12.4369
C -0.0189547 -8.88926 12.4688
C 0.124566 -10.6816 14.1511
C 1.8579 -8.96163 14.2755
C 1.97263 -7.16305 -16.1563
C -0.132964 -5.30793 -16.0298
C -0.136583 -7.01332 -14.1886
C 1.70227 -5.43588 -14.2841
C 1.75095 -7.15425 -12.4902
C -0.0961609 -5.36449 -12.4369
C -0.0200032 -7.194 -10.6668
C 1.72753 -5.38869 -10.6862
C 1.76702 -7.20424 -8.90125
C -0.0387049 -5.40351 -8.89635
C -0.021139 -7.12666 -7.13554
C 1.79141 -5.38138 -7.13894
C 1.7787 -7.13118 -5.33151
C 0.0266842 -5.39152 -5.33347
C 0.0418672 -7.12144 -3.58508