# created by avelmpbin, atomic ave positions

    32000    atoms
    2   atom types
    -36.5941    34.8241    xlo xhi
    -36.5909    34.8209    ylo yhi
    -36.5979    34.8279    zlo zhi
    0    0    0    xy  xz  yz
 Masses

    1    58.6934
    2    55.845
 Atoms

        1    1         16.0715         -5.4779         7.30484
        2    1         28.6539         -3.71312         7.28665
        3    1         26.8629         -5.48239         7.31853
        4    1         23.2914         -3.74961         9.1276
        5    1         25.0551         -5.48911         9.10263
        6    1         25.1056         -3.75482         7.34869
        7    1         23.2961         -5.50994         7.33353
        8    1         19.7263         -3.75785         9.12076
        9    1         21.4824         -5.50942         9.11173
        10    1         21.5359         -3.80005         7.33746
        11    1         19.6774         -5.51184         7.34235
        12    1         16.1201         -3.75842         9.1084
        13    1         17.8692         -5.50468         9.0911
        14    1         17.9396         -3.768         7.35312
        15    1         28.6224         -5.46629         9.07568
        16    1         16.0379         -7.23624         9.05863
        17    1         14.2806         -3.75192         7.29588
        18    1         14.2546         -7.20224         7.2598
        19    1         8.87621         -7.21311         9.0181
        20    1         12.4375         -7.21712         9.02727
        21    1         12.4512         -5.44777         7.26464
        22    1         10.6508         -7.20893         7.2481
        23    1         3.512         -8.96718         9.00152
        24    1         7.12573         -8.97185         9.00254
        25    1         7.14132         -7.1855         7.20458
        26    1         -0.0144064         -8.93221         8.98985
        27    1         5.34273         -10.7027         9.02619
        28    1         -32.0524         -5.38145         9.01676
        29    1         -8.88434         -10.6953         8.9843
        30    1         -16.0558         -10.699         8.95464
        31    1         -12.5057         -10.6745         8.9541
        32    1         -14.2716         -10.6775         7.17293
        33    1         -16.0397         -12.4754         7.20905
        34    1         -17.8235         -12.4926         8.96517
        35    1         -19.5972         -12.493         7.19166
        36    1         -23.1946         -10.6892         8.98419
        37    1         -21.3987         -10.6912         7.21072
        38    1         -23.2001         -12.4704         7.19652
        39    1         -26.7404         -10.6748         9.05249
        40    1         -24.9612         -12.4492         9.00924
        41    1         -24.9184         -10.6966         7.21112
        42    1         1.73673         -8.94143         7.2167
        43    1         -30.3039         -7.13916         9.01761
        44    1         -30.3137         -5.36028         7.20611
        45    1         -32.0574         -7.14879         7.21145
        46    1         -35.63         -5.40756         9.00103
        47    1         -33.8362         -5.3472         7.21262
        48    1         32.2123         -8.96861         9.03089
        49    1         34.0074         -8.98149         7.20881
        50    1         32.1949         -10.7164         7.2126
        51    1         28.6859         -1.92865         9.0751
        52    1         30.3991         -10.7373         9.02572
        53    1         28.6004         -10.7604         7.21113
        54    1         26.8917         -3.71827         9.1041
        55    1         25.0066         -9.01415         9.04224
        56    1         -30.3204         -8.90466         7.21497
        57    1         -32.0845         -10.7153         7.20677
        58    1         -35.6602         -8.93883         9.00127
        59    1         -33.8411         -8.98344         7.18899
        60    1         -35.6398         -10.7464         7.19463
        61    1         33.9516         -14.2797         8.997
        62    1         33.9772         -12.5375         7.18203
        63    1         32.1485         -14.2963         7.21036
        64    1         30.3402         -14.3104         9.00805
        65    1         30.3576         -12.5308         7.20521
        66    1         26.8104         -7.24118         9.06562
        67    1         28.5569         -7.23535         7.26603
        68    1         23.247         -7.25836         9.07688
        69    1         -30.3335         -10.6819         9.02195
        70    1         25.0461         -7.24973         7.29948
        71    1         23.229         -8.99968         7.2627
        72    1         19.6391         -7.25165         9.0936
        73    1         21.4127         -9.01752         9.07189
        74    1         19.6064         -10.8084         9.02418
        75    1         17.8276         -7.19979         7.29201
        76    1         17.8217         -10.8087         7.23042
        77    1         14.2362         -8.98219         9.0115
        78    1         16.0116         -10.759         9.00864
        79    1         16.0188         -8.97426         7.26166
        80    1         14.215         -10.7466         7.23905
        81    1         10.6641         -8.95557         9.03408
        82    1         -12.4643         -14.2764         8.95931
        83    1         -3.55985         -8.9467         8.97506
        84    1         1.7581         -10.7235         8.99662
        85    1         -1.79928         -8.91349         7.20232
        86    1         0.00190143         -10.7066         7.22244
        87    1         -5.33658         -10.667         8.96727
        88    1         -1.76545         -10.7049         8.97088
        89    1         -3.55375         -10.7033         7.22981
        90    1         -3.52728         -12.4903         5.47691
        91    1         -5.31251         -12.4671         7.21473
        92    1         -7.1097         -10.6817         7.17909
        93    1         -10.6947         -12.5033         8.95966
        94    1         -8.91092         -14.2734         8.97666
        95    1         -8.89426         -12.4818         7.18676
        96    1         -10.7047         -8.8776         9.00289
        97    1         -12.5138         -12.433         7.21291
        98    1         -14.3416         -14.2769         7.27224
        99    1         -19.6305         -14.2598         8.99016
        100    1         -16.0866         -14.2812         8.9895
        101    1         -17.8297         -14.2652         7.22458
        102    1         -19.625         -16.0514         7.21505
        103    1         -21.4107         -16.0605         8.98435
        104    1         -21.4245         -17.8197         7.20528
        105    1         -24.9748         -16.0652         9.00355
        106    1         -23.1872         -17.8265         8.9818
        107    1         -23.1955         -16.0661         7.1988
        108    1         -32.0534         -8.92741         9.01498
        109    1         -5.35769         -3.59702         8.98277
        110    1         7.05241         -3.72877         7.23514
        111    1         5.28186         -3.70681         9.0058
        112    1         5.23281         -1.926         7.22737
        113    1         3.50073         -3.66959         7.211
        114    1         -0.0456718         -1.85173         8.95275
        115    1         1.72779         -3.62467         8.98223
        116    1         1.7315         -1.88041         7.21969
        117    1         -0.0680348         -3.61102         7.21323
        118    1         -3.61098         -1.83182         8.98087
        119    1         -1.83734         -3.59441         8.96135
        120    1         -1.84222         -1.84086         7.20555
        121    1         -3.58889         -3.59827         7.17529
        122    1         -7.13993         -1.79354         8.97769
        123    1         8.82072         -1.99384         7.27691
        124    1         -8.93332         -1.76578         7.15336
        125    1         -8.87309         -5.40574         7.14718
        126    1         -14.2532         -5.33459         8.94105
        127    1         -12.4886         -7.14726         8.93483
        128    1         -12.5378         -5.4038         7.12823
        129    1         -12.5115         -8.91483         7.16721
        130    1         -14.281         -8.92689         8.92648
        131    1         -14.2651         -7.13651         7.14835
        132    1         -16.0408         -8.89981         7.15045
        133    1         -17.8015         -8.89953         8.93475
        134    1         -17.8151         -7.09931         7.13141
        135    1         -19.6126         -8.88467         7.15903
        136    1         23.4927         3.33898         9.16285
        137    1         -33.8476         -0.026969         8.99532
        138    1         -33.8142         1.76462         7.2705
        139    1         -35.5995         -0.0793665         7.22391
        140    1         32.2168         -1.87966         9.03285
        141    1         34.0402         -1.83519         7.19761
        142    1         32.2805         -3.61881         7.20906
        143    1         28.7276         5.2738         9.09604
        144    1         30.4443         -3.67695         9.0773
        145    1         28.7653         3.51788         7.29052
        146    1         26.9701         3.46484         9.10926
        147    1         27.025         5.22697         7.31751
        148    1         25.225         3.39273         7.32962
        149    1         21.7591         3.32237         7.42077
        150    1         -23.1516         -7.09428         8.99462
        151    1         23.4704         3.35861         5.63365
        152    1         23.4666         1.56082         7.37652
        153    1         18.266         5.07546         9.22812
        154    1         20.0681         3.26673         5.71924
        155    1         19.9753         1.47854         7.4329
        156    1         18.1134         1.49463         9.1866
        157    1         18.302         3.20849         7.44604
        158    1         16.3443         1.44997         7.43433
        159    1         10.5474         1.50639         9.02252
        160    1         12.4379         -0.255461         9.03668
        161    1         10.5941         -0.275678         7.32801
        162    1         8.85934         -3.71481         9.03978
        163    1         1.73396         -7.16707         8.9814
        164    1         17.9699         -2.01721         9.16034
        165    1         16.1706         -2.04947         7.38614
        166    1         12.4175         -3.73399         9.07687
        167    1         14.3705         -0.317142         7.38014
        168    1         12.4793         -2.02632         7.3439
        169    1         7.10112         -5.44342         9.01666
        170    1         10.6548         -5.46479         9.03332
        171    1         10.6525         -3.71443         7.29
        172    1         8.87952         -5.44684         7.2341
        173    1         3.49954         -5.40895         8.98488
        174    1         5.28361         -5.43084         7.21321
        175    1         3.47714         -7.18621         7.20962
        176    1         -0.0366856         -5.37981         8.97163
        177    1         16.2024         -0.243907         9.15056
        178    1         1.72136         -5.40817         7.20867
        179    1         -0.0409002         -7.17294         7.20852
        180    1         -3.60096         -5.34753         8.96616
        181    1         -1.80039         -7.14926         8.95107
        182    1         -1.81035         -5.37436         7.20913
        183    1         -3.56794         -7.15223         7.20082
        184    1         -5.33123         -5.38542         7.17128
        185    1         -5.32944         -8.92152         7.17959
        186    1         -8.88435         -7.14983         8.97359
        187    1         -7.12944         -8.93259         8.96155
        188    1         -7.10855         -7.15999         7.1535
        189    1         -8.86252         -8.93159         7.1812
        190    1         34.0362         -5.40447         7.21052
        191    1         -21.4225         -8.88201         8.95894
        192    1         -21.3851         -7.08883         7.19321
        193    1         -23.1541         -8.88553         7.2107
        194    1         -28.5597         -8.90835         9.02785
        195    1         -24.8954         -7.06077         7.189
        196    1         -30.3069         -3.60444         8.97865
        197    1         -32.0765         -3.60878         7.19034
        198    1         -35.5781         -1.84118         8.99239
        199    1         -33.8355         -3.62714         8.98905
        200    1         -33.8385         -1.83836         7.19254
        201    1         -35.607         -3.60928         7.20749
        202    1         34.0122         -7.20246         9.02645
        203    1         12.4323         -10.7252         9.01544
        204    1         32.3191         -7.23738         7.21836
        205    1         30.409         -5.43027         10.8336
        206    1         28.7358         -0.165814         7.30169
        207    1         25.2072         1.61915         9.14487
        208    1         26.9625         -0.161745         9.09398
        209    1         26.9611         -1.96968         7.31659
        210    1         23.4065         -0.188801         9.13395
        211    1         23.3398         -2.03613         7.35213
        212    1         19.8373         -0.258628         9.17309
        213    1         21.5762         -1.99208         9.14585
        214    1         21.6564         -0.278449         7.38477
        215    1         19.8203         -2.06185         7.39263
        216    1         -26.7592         -21.3355         9.01353
        217    1         -7.17361         -21.5784         7.31984
        218    1         -7.19536         -25.0573         7.15843
        219    1         -10.7746         -23.2549         9.01737
        220    1         -8.98401         -25.0468         8.97293
        221    1         -10.8197         -25.0335         7.22067
        222    1         -16.0918         -24.9916         8.98791
        223    1         -12.5479         -25.0302         8.99231
        224    1         -14.337         -25.0173         7.20868
        225    1         -21.4374         -21.3785         7.22963
        226    1         -24.9881         -19.5803         8.97409
        227    1         -23.2038         -19.5754         7.20738
        228    1         -24.9964         -21.3601         7.21058
        229    1         -28.5354         -19.5806         9.02266
        230    1         -8.96847         -21.4798         9.05112
        231    1         -26.7632         -19.5701         7.2223
        232    1         -28.5368         -21.3428         7.20953
        233    1         -32.1122         -19.5662         9.07323
        234    1         -30.3309         -21.3493         9.03594
        235    1         -35.7423         -19.5659         8.98888
        236    1         -33.8759         -19.584         7.23662
        237    1         32.1313         -23.2061         8.96291
        238    1         33.8671         -24.9675         8.96867
        239    1         32.1161         -24.9712         7.16327
        240    1         28.5317         -23.1867         8.90985
        241    1         30.3434         -24.945         8.91963
        242    1         30.3513         -23.1949         7.16124
        243    1         8.84548         -19.7492         7.22739
        244    1         23.1393         -19.683         7.1727
        245    1         21.3495         -21.4567         7.17577
        246    1         23.134         -14.3545         9.00656
        247    1         19.5641         -14.3291         8.99087
        248    1         21.3149         -16.1372         8.9976
        249    1         21.3528         -14.3336         7.21544
        250    1         19.5759         -16.1205         7.21543
        251    1         14.1999         -16.1293         8.99482
        252    1         17.8218         -16.1265         8.9834
        253    1         14.2208         -17.9462         7.14124
        254    1         12.4436         -16.1085         7.22171
        255    1         12.4455         -19.7411         7.15188
        256    1         10.6468         -19.7651         8.9735
        257    1         28.5556         -24.9644         7.14765
        258    1         5.33916         -17.849         9.00073
        259    1         7.07918         -19.6743         9.002
        260    1         5.29226         -19.6871         7.25306
        261    1         3.56459         -19.5602         9.01898
        262    1         3.58008         -17.8484         7.24835
        263    1         1.79877         -19.6242         7.21452
        264    1         -1.80628         -21.5569         8.98731
        265    1         -0.105315         -23.3223         8.93678
        266    1         -1.82919         -23.2855         7.15812
        267    1         -5.37929         -21.4882         8.99206
        268    1         -3.60047         -21.5028         7.19644
        269    1         -5.40275         -23.265         7.14035
        270    1         -17.8504         -24.9699         7.21381
        271    1         3.50794         -25.0173         7.0607
        272    1         -1.82391         -25.0558         8.94948
        273    1         1.66445         -23.3543         7.14363
        274    1         -0.0783254         -25.0474         7.13563
        275    1         -3.62843         -25.0337         7.112
        276    1         -3.64594         -26.7867         5.34513
        277    1         -7.21972         -26.8052         8.94133
        278    1         -5.42859         -26.7991         7.1019
        279    1         -5.43483         -25.0226         5.36497
        280    1         -7.2188         -28.5543         7.14539
        281    1         -10.7372         -26.7887         8.95598
        282    1         -8.97053         -28.5706         8.93436
        283    1         -9.00928         -26.8086         7.18499
        284    1         5.25911         -23.1933         7.1609
        285    1         -21.431         -23.1699         9.00468
        286    1         -19.6437         -24.9681         9.02805
        287    1         -21.4657         -24.9379         7.23023
        288    1         -25.019         -23.132         9.03435
        289    1         -23.2114         -24.902         9.01761
        290    1         -23.2233         -23.1545         7.22028
        291    1         -26.7983         -24.882         9.04453
        292    1         -26.7754         -23.1097         7.22045
        293    1         -28.5731         -24.882         7.20778
        294    1         -32.0747         -23.1381         9.04663
        295    1         -30.3236         -23.106         7.19624
        296    1         -35.7757         -23.1737         9.02474
        297    1         21.3388         -17.9082         7.20396
        298    1         24.9097         -23.192         8.90872
        299    1         26.7371         -24.9408         8.88079
        300    1         26.7328         -23.1887         7.14507
        301    1         21.356         -23.2172         8.9425
        302    1         23.1167         -24.9933         8.91865
        303    1         23.1192         -23.2151         7.14993
        304    1         21.3836         -25.0067         7.16323
        305    1         21.3336         -19.6799         8.94904
        306    1         19.5913         -25.0033         8.91183
        307    1         19.6049         -23.2327         7.17914
        308    1         17.8235         -25.0169         7.15262
        309    1         19.5366         -17.9115         8.9718
        310    1         19.5729         -21.4495         8.96282
        311    1         23.1156         -21.4475         8.93537
        312    1         19.5629         -19.6909         7.18612
        313    1         17.7605         -19.711         8.95934
        314    1         17.7994         -17.931         7.17959
        315    1         16.0411         -19.7267         7.13748
        316    1         12.393         -21.5037         8.95666
        317    1         8.84752         -21.4698         8.97325
        318    1         10.5943         -23.2374         8.94697
        319    1         10.6411         -21.4651         7.18315
        320    1         8.86166         -23.2023         7.19371
        321    1         5.34397         -21.432         9.00293
        322    1         7.06097         -23.1914         8.96219
        323    1         7.05418         -21.4464         7.21745
        324    1         32.1267         -16.0784         9.0002
        325    1         -16.074         -19.6197         7.19514
        326    1         -19.6529         -17.8247         9.006
        327    1         -17.8703         -19.6489         9.01826
        328    1         -21.4115         -19.5953         9.01236
        329    1         -28.5496         -14.2812         7.24083
        330    1         -32.104         -12.4723         9.00284
        331    1         -30.332         -14.2656         9.01661
        332    1         -30.3552         -12.513         7.24523
        333    1         -32.1007         -14.2754         7.23804
        334    1         -35.6771         -12.5537         8.98564
        335    1         -33.8995         -14.2587         9.00311
        336    1         -33.8837         -12.5073         7.20262
        337    1         -35.6892         -14.2889         7.20841
        338    1         -16.0539         -16.0492         7.18851
        339    1         33.8995         -17.8226         8.99521
        340    1         32.1282         -17.8623         7.18004
        341    1         30.3637         -17.863         8.96232
        342    1         28.5623         -17.8798         7.12621
        343    1         26.7784         -16.1843         7.15234
        344    1         25.0148         -10.7743         7.25205
        345    1         26.7978         -12.4808         7.20149
        346    1         26.8051         -9.01353         7.26905
        347    1         24.9588         -12.5653         5.45544
        348    1         21.3893         -10.7952         7.23076
        349    1         23.1783         -12.6019         7.22713
        350    1         17.8162         -12.5482         9.00365
        351    1         -1.77748         -12.4876         7.25398
        352    1         12.461         -8.95839         7.24388
        353    1         7.08971         -12.503         8.95487
        354    1         8.87515         -8.95158         7.19969
        355    1         7.11206         -10.74         7.1798
        356    1         3.53012         -12.509         8.99426
        357    1         5.32423         -14.3086         8.96345
        358    1         3.55572         -14.2895         7.21679
        359    1         0.0146639         -12.5064         8.9954
        360    1         1.78753         -14.2997         8.99718
        361    1         1.77219         -12.5164         7.23484
        362    1         0.00299219         -14.2802         7.27137
        363    1         -3.54355         -12.4734         8.98441
        364    1         -1.76773         -14.2737         9.02387
        365    1         21.3471         -12.5603         8.97991
        366    1         -3.53675         -14.2425         7.24862
        367    1         -7.07452         -14.2611         7.29234
        368    1         -5.3044         -16.1027         7.25146
        369    1         -5.29058         -14.2404         5.478
        370    1         -7.0283         -16.0039         5.65387
        371    1         -10.7191         -16.0379         8.98122
        372    1         -8.9062         -16.082         7.24122
        373    1         -8.69883         -14.3361         5.5075
        374    1         -12.5337         -17.8706         9.02428
        375    1         -12.5646         -16.1162         7.25636
        376    1         -14.3038         -17.8758         7.17473
        377    1         -17.8648         -16.0089         8.98031
        378    1         -30.3422         -16.0364         7.24263
        379    1         -12.5764         -23.2733         7.23594
        380    1         -16.0994         -21.4279         9.04573
        381    1         -14.3252         -23.2323         9.00699
        382    1         -16.0875         -23.242         7.22059
        383    1         -19.6544         -21.3971         9.04151
        384    1         -17.8653         -23.1979         9.02659
        385    1         -24.9816         -17.8063         7.20677
        386    1         -28.552         -16.0161         9.00533
        387    1         -26.7739         -17.7964         9.00903
        388    1         -26.7393         -16.0367         7.23044
        389    1         -28.5315         -17.7905         7.24012
        390    1         -32.1173         -16.056         9.03233
        391    1         -30.3281         -17.7826         9.02445
        392    1         -12.5918         -19.6556         7.23665
        393    1         -35.6909         -16.0443         9.04488
        394    1         -33.9203         -17.8253         9.05897
        395    1         32.1094         -19.6         8.94886
        396    1         33.9129         -21.3903         8.97882
        397    1         33.8848         -19.5997         7.20231
        398    1         30.3304         -21.4213         8.92657
        399    1         30.3258         -19.6383         7.15047
        400    1         28.5453         -21.4333         7.15249
        401    1         24.9029         -19.7212         8.97461
        402    1         26.7276         -21.4622         8.93014
        403    1         24.9182         -21.4476         7.15281
        404    1         24.9433         -16.0885         9.05683
        405    1         5.30794         -16.0663         7.20835
        406    1         19.5962         -12.5533         7.2141
        407    1         17.8361         -14.3282         7.20425
        408    1         10.6947         -12.5285         8.96926
        409    1         12.4463         -14.3317         8.99684
        410    1         12.4732         -12.5111         7.21512
        411    1         10.688         -14.3029         7.2283
        412    1         10.6868         -16.0448         8.99559
        413    1         8.87494         -12.5448         7.18217
        414    1         8.88178         -16.0213         7.21667
        415    1         3.57381         -16.0738         9.00234
        416    1         7.07701         -16.0695         8.97125
        417    1         7.08769         -14.2931         7.18883
        418    1         -30.2381         1.79542         7.16415
        419    1         0.0334478         -16.0684         9.01485
        420    1         1.79646         -17.8545         9.00615
        421    1         1.80175         -16.0672         7.23871
        422    1         0.0590557         -17.8642         7.23174
        423    1         -1.7239         -17.8467         9.01756
        424    1         -5.39025         -17.8779         8.99308
        425    1         -3.60658         -17.9065         7.2175
        426    1         -5.33566         -19.7001         7.27453
        427    1         -10.7693         -19.7177         9.06818
        428    1         -7.14877         -19.7169         9.01201
        429    1         -8.98572         -19.752         7.31231
        430    1         -12.5466         -21.4785         9.0512
        431    1         30.415         16.0949         7.27913
        432    1         -32.047         19.6656         9.00491
        433    1         -30.2384         17.8688         9.01225
        434    1         -30.2619         19.667         7.19778
        435    1         -35.6396         19.6744         9.03917
        436    1         -33.8766         17.9274         9.02126
        437    1         -33.8662         19.6634         7.21597
        438    1         -35.6342         17.879         7.21179
        439    1         32.1685         16.0837         9.04391
        440    1         33.9384         14.3114         8.99701
        441    1         33.9555         16.0836         7.23182
        442    1         32.188         14.3168         7.24592
        443    1         28.6371         16.0847         9.06516
        444    1         30.4307         14.2926         9.04967
        445    1         -28.5013         17.861         7.22069
        446    1         28.6874         14.3009         7.27427
        447    1         26.9059         14.2998         9.09312
        448    1         16.0673         21.4473         9.03647
        449    1         17.8543         19.6787         9.06782
        450    1         17.8293         21.4691         7.25051
        451    1         16.0879         19.6975         7.29844